LAMMPS data file from msi2lmp v3.8 for pe-80blk-10-chain-1

   4820 atoms
   4810 bonds
   9600 angles
  14310 dihedrals
   6400 impropers

   3 atom types
   4 bond types
   7 angle types
   7 dihedral types
   6 improper types

     2.323085104    38.315585104 xlo xhi
     7.481843501    43.474343501 ylo yhi
    -5.746962466    30.245537534 zlo zhi

Masses

   1   1.007970
   2  12.011150
   3  12.011150

Pair Coeffs

   1   0.0200000000   2.9950000000 
   2   0.0540000000   4.0100000000 
   3   0.0540000000   4.0100000000 

Bond Coeffs

  1     1.1010   345.0000  -691.8900   844.6000 
  2     1.5300   299.6700  -501.7700   679.8100 
  3     1.1010   345.0000  -691.8900   844.6000 
  4     1.5300   299.6700  -501.7700   679.8100 

Angle Coeffs

  1   110.7700    41.4530   -10.6040     5.1290 
  2   107.6600    39.6410   -12.9210    -2.4318 
  3   110.7700    41.4530   -10.6040     5.1290 
  4   112.6700    39.5160    -7.4430    -9.5583 
  5   107.6600    39.6410   -12.9210    -2.4318 
  6   110.7700    41.4530   -10.6040     5.1290 
  7   112.6700    39.5160    -7.4430    -9.5583 

Dihedral Coeffs

  1    -0.1432     0.0000     0.0617     0.0000    -0.1083     0.0000
  2     0.0000     0.0000     0.0316     0.0000    -0.1681     0.0000
  3     0.0000     0.0000     0.0514     0.0000    -0.1430     0.0000
  4     0.0000     0.0000     0.0316     0.0000    -0.1681     0.0000
  5     0.0000     0.0000     0.0316     0.0000    -0.1681     0.0000
  6    -0.1432     0.0000     0.0617     0.0000    -0.1083     0.0000
  7     0.0000     0.0000     0.0514     0.0000    -0.1430     0.0000

Improper Coeffs

  1     0.0000     0.0000 
  2     0.0000     0.0000 
  3     0.0000     0.0000 
  4     0.0000     0.0000 
  5     0.0000     0.0000 
  6     0.0000     0.0000 

BondBond Coeffs

  1     3.3872     1.1010     1.5300 
  2     5.3316     1.1010     1.1010 
  3     3.3872     1.1010     1.5300 
  4     0.0000     1.5300     1.5300 
  5     5.3316     1.1010     1.1010 
  6     3.3872     1.1010     1.5300 
  7     0.0000     1.5300     1.5300 

BondAngle Coeffs

  1    11.4210    20.7540     1.1010     1.5300 
  2    18.1030    18.1030     1.1010     1.1010 
  3    11.4210    20.7540     1.1010     1.5300 
  4     8.0160     8.0160     1.5300     1.5300 
  5    18.1030    18.1030     1.1010     1.1010 
  6    11.4210    20.7540     1.1010     1.5300 
  7     8.0160     8.0160     1.5300     1.5300 

AngleAngle Coeffs

  1     0.2738     0.2738    -0.4825   107.6600   110.7700   110.7700 
  2    -0.3157    -0.3157    -0.3157   107.6600   107.6600   107.6600 
  3     0.2738     0.2738    -0.4825   107.6600   110.7700   110.7700 
  4    -1.3199     0.1184    -1.3199   110.7700   112.6700   110.7700 
  5     0.2738     0.2738    -0.4825   107.6600   110.7700   110.7700 
  6    -1.3199     0.1184    -1.3199   110.7700   112.6700   110.7700 

AngleAngleTorsion Coeffs

  1   -12.5640   110.7700   110.7700 
  2   -16.1640   110.7700   112.6700 
  3   -22.0450   112.6700   112.6700 
  4   -16.1640   110.7700   112.6700 
  5   -16.1640   110.7700   112.6700 
  6   -12.5640   110.7700   110.7700 
  7   -22.0450   112.6700   112.6700 

EndBondTorsion Coeffs

1     0.2130     0.3120     0.0777     0.2130     0.3120     0.0777     1.1010     1.1010 
2     0.0814     0.0591     0.2219     0.2486     0.2422    -0.0925     1.1010     1.5300 
3    -0.0732     0.0000     0.0000    -0.0732     0.0000     0.0000     1.5300     1.5300 
4     0.0814     0.0591     0.2219     0.2486     0.2422    -0.0925     1.1010     1.5300 
5     0.0814     0.0591     0.2219     0.2486     0.2422    -0.0925     1.1010     1.5300 
6     0.2130     0.3120     0.0777     0.2130     0.3120     0.0777     1.1010     1.1010 
7    -0.0732     0.0000     0.0000    -0.0732     0.0000     0.0000     1.5300     1.5300 

MiddleBondTorsion Coeffs

  1   -14.2610    -0.5322    -0.4864     1.5300 
  2   -14.8790    -3.6581    -0.3138     1.5300 
  3   -17.7870    -7.1877     0.0000     1.5300 
  4   -14.8790    -3.6581    -0.3138     1.5300 
  5   -14.8790    -3.6581    -0.3138     1.5300 
  6   -14.2610    -0.5322    -0.4864     1.5300 
  7   -17.7870    -7.1877     0.0000     1.5300 

BondBond13 Coeffs

  1     0.0000     1.1010     1.1010 
  2     0.0000     1.1010     1.5300 
  3     0.0000     1.5300     1.5300 
  4     0.0000     1.1010     1.5300 
  5     0.0000     1.1010     1.5300 
  6     0.0000     1.1010     1.1010 
  7     0.0000     1.5300     1.5300 

AngleTorsion Coeffs

  1    -0.8085     0.5569    -0.2466    -0.8085     0.5569    -0.2466   110.7700   110.7700 
  2     0.3113     0.4516    -0.1988    -0.2454     0.0000    -0.1136   110.7700   112.6700 
  3     0.3886    -0.3139     0.1389     0.3886    -0.3139     0.1389   112.6700   112.6700 
  4     0.3113     0.4516    -0.1988    -0.2454     0.0000    -0.1136   110.7700   112.6700 
  5     0.3113     0.4516    -0.1988    -0.2454     0.0000    -0.1136   110.7700   112.6700 
  6    -0.8085     0.5569    -0.2466    -0.8085     0.5569    -0.2466   110.7700   110.7700 
  7     0.3886    -0.3139     0.1389     0.3886    -0.3139     0.1389   112.6700   112.6700 

Atoms

      1      1   1  0.053000    26.130092708    10.365755903    22.207971089  -1   1  -1
      2      1   2 -0.159000    27.074539338    10.351995549    22.309613676  -1   1  -1
      3      1   3 -0.106000    27.438485741     9.431400838    23.489294769  -1   1  -1
      4      1   1  0.053000    27.428240401    11.374387670    22.508651307  -1   1  -1
      5      1   1  0.053000    27.528958436     9.971614779    21.382888354  -1   1  -1
      6      1   1  0.053000    27.069023401     8.416856885    23.279067713  -1   1  -1
      7      1   1  0.053000    26.968305367     9.819629775    24.404830665  -1   1  -1
      8      2   3 -0.106000    28.969483398     9.409094582    23.654062749  -1   1  -1
      9      2   3 -0.106000    29.332160575     8.506524988    24.847977520  -1   1  -1
     10      2   1  0.053000    29.324958275    10.433886462    23.836943262  -1   1  -1
     11      2   1  0.053000    29.423035279     9.013438862    22.733327547  -1   1  -1
     12      2   1  0.053000    28.922873279     7.500487333    24.673709292  -1   1  -1
     13      2   1  0.053000    28.899423126     8.933967823    25.764508040  -1   1  -1
     14      3   3 -0.106000    30.865253461     8.435014645    24.974911974  -1   1  -1
     15      3   3 -0.106000    31.269635889    42.993934848    25.365965555  -1   0  -1
     16      3   1  0.053000    31.193741236     9.142266232    25.750732213  -1   1  -1
     17      3   1  0.053000    31.317464446     8.701868646    24.008319901  -1   1  -1
     18      3   1  0.053000    31.142819331    42.335569770    24.493916099  -1   0  -1
     19      3   1  0.053000    30.626306397    42.652632168    26.190366498  -1   0  -1
     20      4   3 -0.106000    32.742831016    42.993289227    25.814625321  -1   0  -1
     21      4   3 -0.106000    33.010945717    41.729869628    26.653365157  -1   0  -1
     22      4   1  0.053000    32.933480012     7.899799438    26.419141383  -1   1  -1
     23      4   1  0.053000    33.388428646    42.996278612    24.924007091  -1   0  -1
     24      4   1  0.053000    32.451016731    40.887509917    26.221037832  -1   0  -1
     25      4   1  0.053000    32.679974767    41.909258241    27.686939163  -1   0  -1
     26      5   3 -0.106000    34.520104023    41.424038411    26.630818354  -1   0  -1
     27      5   3 -0.106000    35.288284454    42.651420603    27.155252207  -1   0  -1
     28      5   1  0.053000    34.825484771    41.203874191    25.597243788  -1   0  -1
     29      5   1  0.053000    34.718866475    40.554133986    27.274064689  -1   0  -1
     30      5   1  0.053000    34.617295428    43.249975196    27.788895163  -1   0  -1
     31      5   1  0.053000    35.630926648    43.251890652    26.299665089  -1   0  -1
     32      6   3 -0.106000    36.498277702    42.171563331    27.978206168  -1   0  -1
     33      6   3 -0.106000    37.047492883    43.353735882    28.798224357  -1   0  -1
     34      6   1  0.053000    37.273041955    41.798975659    27.291966524  -1   0  -1
     35      6   1  0.053000    36.175352410    41.364967823    28.652838669  -1   0  -1
     36      6   1  0.053000    36.436142722     7.483124544    29.704530820  -1   1  -1
     37      6   1  0.053000    36.998462495     8.274495946    28.187037522  -1   1  -1
     38      7   3 -0.106000     2.515974522    43.059152248    29.185978161   0   0  -1
     39      7   3 -0.106000     3.124055502     8.321561464    29.839460729   0   1  -1
     40      7   1  0.053000     3.081202906    42.796995757    28.279448008   0   0  -1
     41      7   1  0.053000     2.535637102    42.219424527    29.896243468   0   0  -1
     42      7   1  0.053000     2.492573414     8.625539627    -5.305203840   0   1   0
     43      7   1  0.053000     3.165317535     9.129298386    29.093903367   0   1  -1
     44      8   3 -0.106000     4.544305991     7.990826261    -5.657960836   0   1   0
     45      8   3 -0.106000     5.152847049     9.246079541    -5.005568261   0   1   0
     46      8   1  0.053000     5.158675009     7.678316954    29.477279162   0   1  -1
     47      8   1  0.053000     4.486083657    43.168484841    -4.921313234   0   0   0
     48      8   1  0.053000     4.469021007     9.611401310    -4.225235500   0   1   0
     49      8   1  0.053000     5.290246687    10.019199261    30.216604207   0   1  -1
     50      9   3 -0.106000     6.512234566     8.878262674    -4.382369888   0   1   0
     51      9   3 -0.106000     6.911433079     9.968561659    -3.370694170   0   1   0
     52      9   1  0.053000     7.266246200     8.813052122    -5.180630565   0   1   0
     53      9   1  0.053000     6.421440842     7.908078344    -3.871973047   0   1   0
     54      9   1  0.053000     6.095959081    10.098700536    -2.644014530   0   1   0
     55      9   1  0.053000     7.086926554    10.910885690    -3.910346585   0   1   0
     56     10   3 -0.106000     8.197329581     9.532002215    -2.644411909   0   1   0
     57     10   3 -0.106000     7.936043736     8.198113043    -1.920486173   0   1   0
     58     10   1  0.053000     8.476997149    10.306264283    -1.914815876   0   1   0
     59     10   1  0.053000     9.001388136     9.405964988    -3.384419021   0   1   0
     60     10   1  0.053000     8.045440899    43.365442265    -2.639598624   0   0   0
     61     10   1  0.053000     6.914859698     8.206536752    -1.511695920   0   1   0
     62     11   3 -0.106000     8.957367344     8.038743330    -0.778952440   0   1   0
     63     11   3 -0.106000     8.539099787    42.842053081     0.105625363   0   0   0
     64     11   1  0.053000     8.974350616     8.962552165    -0.182048031   0   1   0
     65     11   1  0.053000     9.951664485     7.853180538    -1.211324635   0   1   0
     66     11   1  0.053000     9.349316732    42.621962758     0.816333476   0   0   0
     67     11   1  0.053000     8.353869831    41.967073788    -0.534763869   0   0   0
     68     12   3 -0.106000     7.255569507    43.213673305     0.871163285   0   0   0
     69     12   3 -0.106000     7.041180377    42.201355593     2.011711065   0   0   0
     70     12   1  0.053000     6.402873066    43.182738220     0.176931429   0   0   0
     71     12   1  0.053000     7.365961231     8.234455275     1.284780725   0   1   0
     72     12   1  0.053000     7.042117384    41.184281280     1.592716752   0   0   0
     73     12   1  0.053000     6.075067215    42.406695344     2.495919918   0   0   0
     74     13   3 -0.106000     8.183055513    42.349054047     3.034406632   0   0   0
     75     13   3 -0.106000     7.909842353    41.416513116     4.229112064   0   0   0
     76     13   1  0.053000     8.224974946    43.393839658     3.375979255   0   0   0
     77     13   1  0.053000     9.132906829    42.073414826     2.552938497   0   0   0
     78     13   1  0.053000     6.975361555    41.726971256     4.719375923   0   0   0
     79     13   1  0.053000     8.747471745    41.488477408     4.938474743   0   0   0
     80     14   3 -0.106000     7.778583814    39.970278050     3.716496017   0   0   0
     81     14   3 -0.106000     8.617264847    39.041976772     4.614532737   0   0   0
     82     14   1  0.053000     8.146106084    39.922685306     2.680798967   0   0   0
     83     14   1  0.053000     6.720427621    39.671998288     3.753111921   0   0   0
     84     14   1  0.053000     8.096578890    38.905463519     5.573828070   0   0   0
     85     14   1  0.053000     9.602013082    39.501800017     4.784328983   0   0   0
     86     15   3 -0.106000     8.786722613    37.682641737     3.910904844   0   0   0
     87     15   3 -0.106000     9.938901728    36.911348205     4.581120230   0   0   0
     88     15   1  0.053000     9.018282905    37.855209620     2.849487761   0   0   0
     89     15   1  0.053000     7.850390843    37.112676905     4.002714290   0   0   0
     90     15   1  0.053000     9.778991780    36.903076381     5.669402204   0   0   0
     91     15   1  0.053000    10.889683701    37.411828494     4.345471361   0   0   0
     92     16   3 -0.106000     9.957017072    35.468903450     4.042023906   0   0   0
     93     16   3 -0.106000    11.180223369    34.733036870     4.619835138   0   0   0
     94     16   1  0.053000    10.020608095    35.497646369     2.944236998   0   0   0
     95     16   1  0.053000     9.032338040    34.959477807     4.350990364   0   0   0
     96     16   1  0.053000    11.005376569    34.530739099     5.686840985   0   0   0
     97     16   1  0.053000    12.070149845    35.368268306     4.499381163   0   0   0
     98     17   3 -0.106000    11.373823915    33.408180769     3.858996771   0   0   0
     99     17   3 -0.106000    11.825246151    33.717972607     2.419605904   0   0   0
    100     17   1  0.053000    10.419452427    32.861430124     3.843348638   0   0   0
    101     17   1  0.053000    12.140811626    32.809378121     4.371999021   0   0   0
    102     17   1  0.053000    12.607506760    34.490794228     2.448107710   0   0   0
    103     17   1  0.053000    10.961055911    34.080041556     1.843343313   0   0   0
    104     18   3 -0.106000    12.380863819    32.431674436     1.780602067   0   0   0
    105     18   3 -0.106000    12.620376938    32.680430700     0.279817981   0   0   0
    106     18   1  0.053000    11.649853183    31.620675866     1.914433449   0   0   0
    107     18   1  0.053000    13.328412926    32.167616435     2.272974012   0   0   0
    108     18   1  0.053000    13.001651846    31.756709775    -0.179927998   0   0   0
    109     18   1  0.053000    13.357182003    33.488938957     0.163930257   0   0   0
    110     19   3 -0.106000    11.288971321    33.084697302    -0.380127078   0   0   0
    111     19   3 -0.106000    11.404629448    32.889060235    -1.903264768   0   0   0
    112     19   1  0.053000    11.082442579    34.140821219    -0.152192395   0   0   0
    113     19   1  0.053000    10.484045652    32.450347537     0.019499138   0   0   0
    114     19   1  0.053000    10.395330434    32.877415096    -2.340502874   0   0   0
    115     19   1  0.053000    11.911511728    31.933702165    -2.104159225   0   0   0
    116     20   3 -0.106000    12.220992747    34.051808840    -2.497542924   0   0   0
    117     20   3 -0.106000    12.401007389    33.817029820    -4.008857791   0   0   0
    118     20   1  0.053000    13.203377151    34.088631768    -2.004013772   0   0   0
    119     20   1  0.053000    11.679552456    34.993865631    -2.326144313   0   0   0
    120     20   1  0.053000    11.498617630    34.162009635    -4.534860568   0   0   0
    121     20   1  0.053000    12.552371555    32.742460786    -4.188823197   0   0   0
    122     21   3 -0.106000    13.628288454    34.609161401    -4.496616571   0   0   0
    123     21   3 -0.106000    13.490413587    36.075183667    -4.045652797   0   0   0
    124     21   1  0.053000    13.674910507    34.557190547    -5.594401379   0   0   0
    125     21   1  0.053000    14.536348671    34.166586928    -4.061231058   0   0   0
    126     21   1  0.053000    13.779645308    36.152999589    -2.987216704   0   0   0
    127     21   1  0.053000    12.444841534    36.392254834    -4.173097788   0   0   0
    128     22   3 -0.106000    14.414645862    36.954226423    -4.908600315   0   0   0
    129     22   3 -0.106000    13.753293726    37.180889513    29.711734869   0   0  -1
    130     22   1  0.053000    15.379172760    36.441243892    -5.037219347   0   0   0
    131     22   1  0.053000    14.567297928    37.918560118    -4.401881517   0   0   0
    132     22   1  0.053000    13.717037495    36.224614928    29.169312826   0   0  -1
    133     22   1  0.053000    14.347755854    37.911865164    29.144031913   0   0  -1
    134     23   3 -0.106000    12.325832865    37.717701088    29.925717822   0   0  -1
    135     23   3 -0.106000    12.399518844    39.036037971    -5.274218410   0   0   0
    136     23   1  0.053000    11.744006397    36.973334667    -5.503397175   0   0   0
    137     23   1  0.053000    11.859173366    37.894891357    28.945494077   0   0  -1
    138     23   1  0.053000    13.379992293    39.503677655    -5.447372132   0   0   0
    139     23   1  0.053000    12.271765549    38.817918064    -4.203657776   0   0   0
    140     24   3 -0.106000    11.277657444    39.974351518    30.236001001   0   0  -1
    141     24   3 -0.106000    11.007057635    41.031974943    -4.670309549   0   0   0
    142     24   1  0.053000    10.368698061    39.382034753    30.054452775   0   0  -1
    143     24   1  0.053000    11.597249479    40.465821091    29.305235370   0   0  -1
    144     24   1  0.053000    11.939333963    41.576986855    -4.460976954   0   0   0
    145     24   1  0.053000    10.654911977    40.527087349    -3.758674084   0   0   0
    146     25   3 -0.106000     9.930557751    42.008803513    -5.178791433   0   0   0
    147     25   3 -0.106000     8.593509586    41.256380625    -5.312062175   0   0   0
    148     25   1  0.053000    10.238547698    42.402803223    29.833957328   0   0  -1
    149     25   1  0.053000     9.826601531    42.833727077    -4.458582931   0   0   0
    150     25   1  0.053000     8.760574314    40.326227429    30.117497617   0   0  -1
    151     25   1  0.053000     7.875087634    41.894791942    30.145369456   0   0  -1
    152     26   3 -0.106000     8.059501201    40.929919675    -3.904987843   0   0   0
    153     26   3 -0.106000     7.282688849    39.601307887    -3.959323562   0   0   0
    154     26   1  0.053000     7.392611396    41.741258838    -3.577890275   0   0   0
    155     26   1  0.053000     8.908716350    40.839844790    -3.211643618   0   0   0
    156     26   1  0.053000     7.855626848    38.875583000    -4.555194947   0   0   0
    157     26   1  0.053000     6.302208673    39.778527864    -4.425423310   0   0   0
    158     27   3 -0.106000     7.094529837    39.071546172    -2.525605112   0   0   0
    159     27   3 -0.106000     6.877553024    37.547828405    -2.578560905   0   0   0
    160     27   1  0.053000     6.217611789    39.559903511    -2.075574094   0   0   0
    161     27   1  0.053000     7.995165492    39.301985086    -1.937592023   0   0   0
    162     27   1  0.053000     6.133714427    37.318810786    -3.355897603   0   0   0
    163     27   1  0.053000     6.514547704    37.203518075    -1.598930973   0   0   0
    164     28   3 -0.106000     8.215239545    36.862255403    -2.913500170   0   0   0
    165     28   3 -0.106000     8.100337513    35.358823239    -2.600309595   0   0   0
    166     28   1  0.053000     9.011405370    37.312884886    -2.302714515   0   0   0
    167     28   1  0.053000     8.434369866    37.007232270    -3.981661993   0   0   0
    168     28   1  0.053000     8.787783967    34.803071655    -3.254950579   0   0   0
    169     28   1  0.053000     7.065173829    35.033489811    -2.780840973   0   0   0
    170     29   3 -0.106000     8.474924064    35.123932130    -1.125144870   0   0   0
    171     29   3 -0.106000     9.661571052    36.034289511    -0.758106109   0   0   0
    172     29   1  0.053000     8.755841977    34.068948791    -0.990603618   0   0   0
    173     29   1  0.053000     7.607720445    35.364785588    -0.492726050   0   0   0
    174     29   1  0.053000     9.308854982    37.074266911    -0.694579342   0   0   0
    175     29   1  0.053000    10.434007065    35.947038298    -1.536390826   0   0   0
    176     30   3 -0.106000    10.232975226    35.589611964     0.601069756   0   0   0
    177     30   3 -0.106000    11.743849825    35.886195038     0.630994921   0   0   0
    178     30   1  0.053000    10.059956477    34.510572395     0.726545611   0   0   0
    179     30   1  0.053000     9.725422905    36.146580235     1.402433004   0   0   0
    180     30   1  0.053000    12.121475925    35.719167019     1.650552393   0   0   0
    181     30   1  0.053000    11.909214495    36.933068532     0.336533241   0   0   0
    182     31   3 -0.106000    12.459351525    34.944065851    -0.354930936   0   0   0
    183     31   3 -0.106000    13.972612260    34.976725500    -0.071074662   0   0   0
    184     31   1  0.053000    12.262965281    35.284645107    -1.382279116   0   0   0
    185     31   1  0.053000    12.073990389    33.922891808    -0.218159459   0   0   0
    186     31   1  0.053000    14.137945134    34.833482683     1.006953077   0   0   0
    187     31   1  0.053000    14.375150524    35.950729873    -0.386155121   0   0   0
    188     32   3 -0.106000    14.655611338    33.845535442    -0.861973641   0   0   0
    189     32   3 -0.106000    16.065605730    33.613002868    -0.288001948   0   0   0
    190     32   1  0.053000    14.724955252    34.139411868    -1.919723203   0   0   0
    191     32   1  0.053000    14.055607222    32.928592525    -0.765969388   0   0   0
    192     32   1  0.053000    15.991339651    33.479870715     0.801382120   0   0   0
    193     32   1  0.053000    16.694070533    34.486208675    -0.517219924   0   0   0
    194     33   3 -0.106000    16.666884097    32.349759420    -0.931647967   0   0   0
    195     33   3 -0.106000    17.872662062    31.885516859    -0.093687687   0   0   0
    196     33   1  0.053000    16.991209037    32.589047511    -1.955152052   0   0   0
    197     33   1  0.053000    15.900757458    31.560787710    -0.955724583   0   0   0
    198     33   1  0.053000    18.442308415    32.767784387     0.233580261   0   0   0
    199     33   1  0.053000    18.509627397    31.235904395    -0.711972475   0   0   0
    200     34   3 -0.106000    17.361081396    31.106357475     1.132198016   0   0   0
    201     34   3 -0.106000    18.558793616    30.453380971     1.846835134   0   0   0
    202     34   1  0.053000    16.657000888    30.331152963     0.795545865   0   0   0
    203     34   1  0.053000    16.852747386    31.804405471     1.813616829   0   0   0
    204     34   1  0.053000    19.434012777    31.113308612     1.754725427   0   0   0
    205     34   1  0.053000    18.770354218    29.481860773     1.376316394   0   0   0
    206     35   3 -0.106000    18.207103013    30.251842966     3.332532288   0   0   0
    207     35   3 -0.106000    19.275072747    29.353076180     3.983115103   0   0   0
    208     35   1  0.053000    17.219308478    29.773285734     3.404996088   0   0   0
    209     35   1  0.053000    18.186702576    31.231780945     3.831843261   0   0   0
    210     35   1  0.053000    20.182567439    29.948090436     4.163139239   0   0   0
    211     35   1  0.053000    19.502527400    28.518148516     3.304029361   0   0   0
    212     36   3 -0.106000    18.729221081    28.811116661     5.317253672   0   0   0
    213     36   3 -0.106000    19.592037647    27.616151208     5.763576679   0   0   0
    214     36   1  0.053000    17.687446701    28.488603836     5.173386764   0   0   0
    215     36   1  0.053000    18.773885302    29.609091054     6.073063201   0   0   0
    216     36   1  0.053000    19.215539496    27.242729429     6.727320725   0   0   0
    217     36   1  0.053000    20.635168163    27.948136178     5.871567315   0   0   0
    218     37   3 -0.106000    19.501465321    26.507015230     4.699051472   0   0   0
    219     37   3 -0.106000    19.799098125    25.149604177     5.362714817   0   0   0
    220     37   1  0.053000    20.239679372    26.708043639     3.908713783   0   0   0
    221     37   1  0.053000    18.487467849    26.501797370     4.272685467   0   0   0
    222     37   1  0.053000    19.120023958    25.012124457     6.217088781   0   0   0
    223     37   1  0.053000    20.843336734    25.141276121     5.708393338   0   0   0
    224     38   3 -0.106000    19.578562095    24.027926333     4.330822111   0   0   0
    225     38   3 -0.106000    18.070822017    23.732383584     4.226067988   0   0   0
    226     38   1  0.053000    20.115420432    23.126546851     4.661434004   0   0   0
    227     38   1  0.053000    19.964815247    24.357883057     3.355146380   0   0   0
    228     38   1  0.053000    17.899886724    23.033115848     3.394321013   0   0   0
    229     38   1  0.053000    17.533304432    24.674082297     4.040931150   0   0   0
    230     39   3 -0.106000    17.590033452    23.104310412     5.547418180   0   0   0
    231     39   3 -0.106000    16.237003254    22.408642464     5.308766804   0   0   0
    232     39   1  0.053000    17.476110836    23.897908808     6.300564441   0   0   0
    233     39   1  0.053000    18.334997211    22.369453306     5.886564315   0   0   0
    234     39   1  0.053000    16.413234640    21.444215318     4.809948152   0   0   0
    235     39   1  0.053000    15.611195640    23.051390731     4.672184708   0   0   0
    236     40   3 -0.106000    15.544888629    22.179527932     6.665263674   0   0   0
    237     40   3 -0.106000    14.130711031    21.621923012     6.418732616   0   0   0
    238     40   1  0.053000    15.482016280    23.137850929     7.201612600   0   0   0
    239     40   1  0.053000    16.135049846    21.459658162     7.251355237   0   0   0
    240     40   1  0.053000    13.611662527    22.268732401     5.696082263   0   0   0
    241     40   1  0.053000    13.580663804    21.606734117     7.371210760   0   0   0
    242     41   3 -0.106000    14.246217067    20.193011813     5.856175043   0   0   0
    243     41   3 -0.106000    14.785454756    19.262348410     6.958303635   0   0   0
    244     41   1  0.053000    14.936809785    20.199948487     4.999997697   0   0   0
    245     41   1  0.053000    13.251032937    19.853975689     5.532648964   0   0   0
    246     41   1  0.053000    14.218888028    19.438407590     7.884587920   0   0   0
    247     41   1  0.053000    15.850745211    19.481704486     7.122731211   0   0   0
    248     42   3 -0.106000    14.613912718    17.799756849     6.507749380   0   0   0
    249     42   3 -0.106000    15.534659241    17.535301322     5.301976515   0   0   0
    250     42   1  0.053000    13.564707667    17.633746083     6.222065542   0   0   0
    251     42   1  0.053000    14.885761807    17.134304732     7.340382326   0   0   0
    252     42   1  0.053000    15.353452067    18.305072302     4.537376052   0   0   0
    253     42   1  0.053000    15.310787983    16.539388068     4.892054913   0   0   0
    254     43   3 -0.106000    17.001093489    17.593607391     5.768635791   0   0   0
    255     43   3 -0.106000    17.913269779    17.141186646     4.613279148   0   0   0
    256     43   1  0.053000    17.129087918    16.923987431     6.631904350   0   0   0
    257     43   1  0.053000    17.244581252    18.627064291     6.056188595   0   0   0
    258     43   1  0.053000    17.700649995    17.756955684     3.726927870   0   0   0
    259     43   1  0.053000    17.712201616    16.082668730     4.391674353   0   0   0
    260     44   3 -0.106000    19.383386855    17.319158320     5.035986789   0   0   0
    261     44   3 -0.106000    20.295600834    16.860641367     3.883065739   0   0   0
    262     44   1  0.053000    19.574965725    16.709284125     5.931172284   0   0   0
    263     44   1  0.053000    19.565832538    18.380707344     5.259220547   0   0   0
    264     44   1  0.053000    21.345554228    16.999814584     4.180094282   0   0   0
    265     44   1  0.053000    20.075170963    17.464207893     2.990252550   0   0   0
    266     45   3 -0.106000    20.025223847    15.372941475     3.591097935   0   0   0
    267     45   3 -0.106000    21.127357096    14.836618372     2.658757376   0   0   0
    268     45   1  0.053000    19.043037226    15.276061895     3.105371823   0   0   0
    269     45   1  0.053000    20.031540355    14.815034343     4.539098886   0   0   0
    270     45   1  0.053000    22.017316484    14.594819255     3.258342853   0   0   0
    271     45   1  0.053000    21.374431267    15.608654239     1.915176685   0   0   0
    272     46   3 -0.106000    20.611955717    13.570433668     1.949717465   0   0   0
    273     46   3 -0.106000    21.536547755    13.250213205     0.760521306   0   0   0
    274     46   1  0.053000    19.588331116    13.752657401     1.590561154   0   0   0
    275     46   1  0.053000    20.615587773    12.733600607     2.663652549   0   0   0
    276     46   1  0.053000    21.535356409    14.103312702     0.066102774   0   0   0
    277     46   1  0.053000    21.164118187    12.350092308     0.249565478   0   0   0
    278     47   3 -0.106000    22.962696594    13.003278208     1.286565486   0   0   0